# vtk DataFile Version 4.0
SiwiRVisFile
ASCII
DATASET STRUCTURED_POINTS
DIMENSIONS 70 80 1
ORIGIN 0 0 0
SPACING 1 1 1
POINT_DATA 5600

SCALARS density double 1
LOOKUP_TABLE default
0.998815
0.998807
0.998792
0.998703
0.998652
0.998639
0.998679
0.998781
0.998905
0.999048
0.99923
0.999413
0.999581
0.999737
0.999869
0.999966
1.00003
1.00007
1.0001
1.00011
1.00011
1.00011
1.00011
1.0001
1.00009
1.00008
1.00007
1.00006
1.00006
1.00005
1.00004
1.00004
1.00003
1.00002
1.00002
1.00002
1.00001
1
0.999997
0.999989
0.999978
0.99997
0.999965
0.999958
0.999947
0.999936
0.999927
0.999918
0.999914
0.999918
0.999927
0.99994
0.999965
1.00001
1.00007
1.00017
1.0003
1.00046
1.00064
1.00082
1.001
1.00114
1.00125
1.00134
1.00136
1.00133
1.00126
1.00116
1.00113
1.00112
0.998811
0.998776
0.998783
0.998735
0.998709
0.998703
0.998729
0.998803
0.998919
0.999053
0.999219
0.999396
0.999569
0.999719
0.999843
0.999942
1.00001
1.00006
1.00009
1.00011
1.00011
1.00011
1.00011
1.0001
1.00009
1.00008
1.00007
1.00007
1.00006
1.00005
1.00005
1.00004
1.00003
1.00003
1.00002
1.00001
1.00001
1
0.999994
0.999985
0.999979
0.999971
0.99996
0.999953
0.999947
0.999937
0.999926
0.99992
0.999916
0.999916
0.999926
0.999948
0.99998
1.00003
1.0001
1.0002
1.00032
1.00047
1.00065
1.00083
1.001
1.00112
1.00123
1.00129
1.00129
1.00127
1.00123
1.00117
1.00117
1.00113
0.998822
0.9988
0.99876
0.998762
0.998762
0.99877
0.998795
0.998832
0.998925
0.999065
0.999216
0.999379
0.999551
0.999701
0.999822
0.999918
0.999989
1.00004
1.00007
1.0001
1.00011
1.00012
1.00011
1.0001
1.00009
1.00008
1.00008
1.00007
1.00006
1.00005
1.00005
1.00004
1.00003
1.00003
1.00002
1.00001
1
0.999998
0.99999
0.999982
0.999975
0.999967
0.999959
0.999952
0.999945
0.999936
0.999926
0.999918
0.999914
0.999916
0.99993
0.999957
0.999995
1.00005
1.00012
1.00022
1.00034
1.00049
1.00067
1.00083
1.00098
1.00112
1.0012
1.00122
1.00122
1.00121
1.0012
1.0012
1.00116
1.00114
0.99877
0.998779
0.998787
0.99882
0.998812
0.99881
0.998845
0.998893
0.998966
0.99908
0.999222
0.999377
0.999528
0.999666
0.999787
0.999883
0.999959
1.00002
1.00007
1.00009
1.00011
1.00011
1.00011
1.0001
1.0001
1.00009
1.00008
1.00007
1.00007
1.00006
1.00005
1.00004
1.00004
1.00003
1.00002
1.00001
1
0.999988
0.999985
0.999982
0.999974
0.999965
0.999958
0.999948
0.999936
0.999932
0.999929
0.999922
0.999918
0.999923
0.999936
0.999961
1.00001
1.00007
1.00015
1.00025
1.00037
1.00051
1.00067
1.00082
1.00096
1.00107
1.00113
1.00116
1.00119
1.00117
1.00115
1.00118
1.00119
1.0012
0.998728
0.998761
0.998802
0.998842
0.998876
0.998897
0.998911
0.998953
0.999012
0.999096
0.999221
0.999364
0.999501
0.999631
0.999749
0.999847
0.999929
0.999995
1.00005
1.00008
1.0001
1.00011
1.00011
1.00011
1.0001
1.00009
1.00009
1.00008
1.00007
1.00006
1.00005
1.00005
1.00004
1.00003
1.00002
1.00001
0.999997
0.999988
0.999981
0.999975
0.999969
0.999962
0.999954
0.999945
0.999938
0.999931
0.999925
0.999921
0.99992
0.999926
0.999945
0.99998
1.00003
1.0001
1.00019
1.00029
1.00041
1.00054
1.00067
1.00082
1.00094
1.00102
1.00107
1.00109
1.0011
1.00111
1.00114
1.00118
1.00122
1.00126
0.998702
0.998752
0.998813
0.998861
0.998924
0.998971
0.998983
0.999008
0.999061
0.999139
0.999236
0.999348
0.999471
0.999592
0.999701
0.999803
0.999895
0.999969
1.00003
1.00007
1.0001
1.0001
1.00011
1.00011
1.00011
1.0001
1.00009
1.00008
1.00007
1.00006
1.00006
1.00005
1.00004
1.00003
1.00002
1.00001
0.999994
0.999987
0.999978
0.999971
0.999969
0.999963
0.999951
0.999942
0.999936
0.999929
0.999923
0.999925
0.999928
0.999935
0.999956
0.999997
1.00005
1.00013
1.00023
1.00033
1.00044
1.00057
1.00069
1.00079
1.00089
1.00096
1.001
1.00102
1.00102
1.00107
1.00113
1.00118
1.00124
1.00129
0.998679
0.998727
0.99882
0.998906
0.998969
0.999021
0.999061
0.999086
0.999118
0.999174
0.999244
0.999332
0.999438
0.999547
0.999655
0.99976
0.999855
0.999938
1
1.00005
1.00008
1.0001
1.00011
1.00011
1.00011
1.0001
1.00009
1.00008
1.00007
1.00006
1.00005
1.00005
1.00004
1.00003
1.00002
1.00001
0.999997
0.999985
0.999977
0.999972
0.999965
0.999958
0.999952
0.999944
0.999934
0.999928
0.999926
0.999926
0.999932
0.999948
0.999976
1.00002
1.00008
1.00017
1.00027
1.00038
1.00049
1.0006
1.0007
1.00078
1.00084
1.00089
1.00091
1.00094
1.00098
1.00103
1.00109
1.00118
1.00128
1.00133
0.998682
0.99873
0.998812
0.998922
0.999012
0.999075
0.999126
0.999159
0.999182
0.999211
0.999258
0.999325
0.999404
0.999499
0.999608
0.999715
0.999813
0.999903
0.999976
1.00003
1.00007
1.00009
1.0001
1.00011
1.00011
1.0001
1.00009
1.00008
1.00008
1.00007
1.00006
1.00005
1.00004
1.00003
1.00002
1.00001
0.999999
0.999986
0.999979
0.999972
0.999963
0.999956
0.999953
0.999946
0.999935
0.99993
0.999928
0.999929
0.99994
0.999964
0.999998
1.00005
1.00012
1.00021
1.00031
1.00042
1.00053
1.00062
1.0007
1.00076
1.00079
1.00081
1.00083
1.00087
1.00092
1.00099
1.00109
1.0012
1.00129
1.00134
0.998677
0.998741
0.998821
0.99893
0.999044
0.999129
0.999187
0.999224
0.999244
0.999256
0.999276
0.999313
0.999372
0.999456
0.999558
0.999667
0.999773
0.999865
0.999941
1
1.00005
1.00008
1.0001
1.00011
1.0001
1.0001
1.00009
1.00008
1.00007
1.00007
1.00006
1.00005
1.00004
1.00003
1.00002
1.00001
1
0.999993
0.999981
0.99997
0.999965
0.99996
0.999951
0.999945
0.99994
0.999933
0.999929
0.999937
0.999954
0.999979
1.00002
1.00008
1.00015
1.00025
1.00035
1.00047
1.00057
1.00065
1.0007
1.00073
1.00074
1.00074
1.00076
1.0008
1.00087
1.00096
1.00109
1.00121
1.00129
1.00136
0.998684
0.998746
0.998843
0.998947
0.999059
0.999167
0.999246
0.999286
0.999301
0.999301
0.999295
0.999304
0.999347
0.999419
0.999511
0.999619
0.999728
0.999824
0.999905
0.999973
1.00002
1.00006
1.00008
1.0001
1.0001
1.00009
1.00009
1.00008
1.00007
1.00007
1.00006
1.00005
1.00003
1.00003
1.00002
1.00001
1
0.999996
0.999985
0.999974
0.999967
0.99996
0.999953
0.999948
0.999943
0.999937
0.999936
0.999946
0.999967
1
1.00005
1.00012
1.0002
1.00029
1.0004
1.00051
1.0006
1.00067
1.0007
1.0007
1.00068
1.00067
1.00068
1.00073
1.00083
1.00095
1.00108
1.00119
1.0013
1.00136
0.998728
0.998772
0.998856
0.998964
0.999084
0.999198
0.999288
0.999341
0.999355
0.99934
0.999317
0.999309
0.999328
0.999382
0.999469
0.999573
0.999679
0.999782
0.999871
0.99994
0.999998
1.00004
1.00007
1.00008
1.00009
1.00009
1.00008
1.00008
1.00007
1.00006
1.00005
1.00005
1.00004
1.00002
1.00002
1.00001
1.00001
0.999995
0.999989
0.999982
0.999969
0.999959
0.999957
0.999951
0.999942
0.999942
0.999948
0.999957
0.999981
1.00002
1.00008
1.00015
1.00024
1.00034
1.00045
1.00055
1.00063
1.00068
1.00069
1.00067
1.00063
1.00061
1.00062
1.00069
1.0008
1.00093
1.00107
1.00119
1.00128
1.00133
0.99878
0.998817
0.998882
0.998984
0.999106
0.999222
0.99932
0.999384
0.9994
0.999377
0.999342
0.999318
0.999318
0.999355
0.999431
0.999528
0.999632
0.999736
0.99983
0.999909
0.999972
1.00002
1.00005
1.00007
1.00008
1.00008
1.00008
1.00008
1.00007
1.00006
1.00005
1.00004
1.00004
1.00003
1.00002
1.00001
1.00001
1
0.999992
0.999983
0.999973
0.999964
0.999957
0.999951
0.999948
0.999949
0.999955
0.999972
1
1.00005
1.00011
1.00019
1.00029
1.00039
1.00049
1.00059
1.00066
1.00068
1.00067
1.00063
1.00059
1.00056
1.00058
1.00066
1.00077
1.00091
1.00106
1.00117
1.00124
1.00128
0.998839
0.998873
0.998928
0.999012
0.999123
0.999243
0.999347
0.999411
0.999431
0.999414
0.999371
0.99933
0.999319
0.999342
0.999396
0.999482
0.999587
0.999689
0.999786
0.999876
0.999946
0.999994
1.00003
1.00006
1.00007
1.00008
1.00008
1.00008
1.00006
1.00006
1.00005
1.00004
1.00003
1.00003
1.00002
1.00001
1.00001
1.00001
0.999995
0.999983
0.999978
0.99997
0.999956
0.999951
0.999954
0.999956
0.999964
0.99999
1.00003
1.00007
1.00014
1.00024
1.00033
1.00044
1.00054
1.00062
1.00067
1.00068
1.00065
1.0006
1.00055
1.00053
1.00055
1.00063
1.00076
1.0009
1.00103
1.00113
1.00119
1.00123
0.99892
0.998938
0.99898
0.999052
0.999148
0.999259
0.999361
0.999429
0.999454
0.999441
0.999399
0.999353
0.999327
0.999333
0.999372
0.999442
0.999537
0.999642
0.999745
0.999837
0.999914
0.999974
1.00001
1.00004
1.00006
1.00007
1.00007
1.00007
1.00007
1.00006
1.00005
1.00004
1.00004
1.00003
1.00002
1.00002
1.00001
1
0.999995
0.999989
0.999978
0.999968
0.999961
0.999956
0.999955
0.999963
0.999981
1.00001
1.00005
1.0001
1.00018
1.00028
1.00038
1.00049
1.00058
1.00064
1.00067
1.00066
1.00062
1.00056
1.00052
1.0005
1.00054
1.00062
1.00075
1.00088
1.00099
1.00108
1.00113
1.00115
0.999009
0.999016
0.999043
0.999101
0.999181
0.999273
0.999365
0.999436
0.999468
0.999458
0.999426
0.999383
0.999343
0.999329
0.999354
0.999408
0.999489
0.999594
0.999703
0.999797
0.99988
0.999949
0.999994
1.00002
1.00005
1.00007
1.00007
1.00007
1.00007
1.00006
1.00004
1.00004
1.00004
1.00003
1.00002
1.00002
1.00001
0.999997
0.999995
0.999992
0.999978
0.999967
0.999964
0.99996
0.999958
0.999972
0.999997
1.00002
1.00007
1.00014
1.00022
1.00032
1.00043
1.00054
1.00062
1.00066
1.00067
1.00064
1.00059
1.00053
1.0005
1.0005
1.00054
1.00063
1.00074
1.00085
1.00095
1.00102
1.00105
1.00107
0.999098
0.999105
0.999122
0.999156
0.999215
0.999292
0.999367
0.99943
0.999469
0.999474
0.999448
0.999408
0.999367
0.999338
0.999338
0.999378
0.999452
0.999546
0.999653
0.99976
0.999849
0.999916
0.999972
1.00001
1.00004
1.00005
1.00007
1.00007
1.00006
1.00006
1.00005
1.00004
1.00003
1.00003
1.00002
1.00001
1.00001
1
0.999994
0.999983
0.999979
0.999973
0.999962
0.99996
0.999971
0.999984
1
1.00005
1.0001
1.00017
1.00026
1.00037
1.00048
1.00058
1.00065
1.00067
1.00066
1.00061
1.00056
1.00051
1.00049
1.0005
1.00056
1.00064
1.00073
1.00082
1.00089
1.00094
1.00096
1.00098
0.999196
0.999197
0.999203
0.999222
0.999258
0.99931
0.999367
0.99942
0.999461
0.99948
0.999467
0.99943
0.999388
0.999351
0.999332
0.999354
0.999417
0.999503
0.999605
0.999716
0.999812
0.999887
0.999949
0.999997
1.00002
1.00004
1.00006
1.00006
1.00006
1.00006
1.00005
1.00004
1.00003
1.00003
1.00002
1.00001
1
1
0.999991
0.99998
0.999977
0.999972
0.999964
0.999966
0.999978
0.999993
1.00002
1.00007
1.00013
1.00021
1.0003
1.00042
1.00052
1.00061
1.00067
1.00068
1.00064
1.00059
1.00053
1.00049
1.00049
1.00053
1.00058
1.00065
1.00072
1.00078
1.00083
1.00085
1.00087
1.00087
0.999297
0.999288
0.999287
0.999298
0.999308
0.999328
0.999367
0.999413
0.999449
0.999473
0.999479
0.999453
0.999405
0.999361
0.999338
0.999339
0.99938
0.999464
0.999565
0.999666
0.999768
0.999861
0.999926
0.999973
1.00001
1.00004
1.00005
1.00005
1.00006
1.00006
1.00005
1.00004
1.00004
1.00003
1.00002
1.00002
1.00001
0.999991
0.999988
0.999985
0.999972
0.999966
0.999973
0.999976
0.99998
1
1.00004
1.00009
1.00016
1.00025
1.00035
1.00046
1.00056
1.00064
1.00068
1.00066
1.00062
1.00057
1.00051
1.00049
1.00051
1.00055
1.00061
1.00067
1.00072
1.00074
1.00075
1.00076
1.00077
1.00076
0.999389
0.999384
0.999379
0.999369
0.99936
0.99936
0.999372
0.9994
0.999437
0.999467
0.999478
0.999464
0.999423
0.999374
0.999339
0.999332
0.999359
0.999425
0.99952
0.999623
0.999726
0.999823
0.999901
0.999958
1
1.00003
1.00004
1.00005
1.00006
1.00006
1.00005
1.00004
1.00004
1.00003
1.00002
1.00001
1
0.999992
0.999985
0.999979
0.999972
0.999971
0.999975
0.99998
0.999992
1.00002
1.00006
1.00011
1.00019
1.00029
1.0004
1.0005
1.0006
1.00066
1.00068
1.00065
1.0006
1.00054
1.0005
1.0005
1.00053
1.00058
1.00064
1.00068
1.00069
1.00069
1.00068
1.00067
1.00066
1.00066
0.999478
0.999478
0.999467
0.999441
0.999417
0.999399
0.999384
0.999392
0.999425
0.999459
0.99947
0.999463
0.999437
0.999388
0.999341
0.999328
0.999348
0.999392
0.999472
0.999581
0.999687
0.99978
0.999871
0.999946
0.999986
1.00001
1.00004
1.00005
1.00005
1.00005
1.00006
1.00004
1.00003
1.00003
1.00002
1
0.999997
0.999998
0.999983
0.99997
0.999976
0.999979
0.999973
0.999983
1.00001
1.00003
1.00007
1.00014
1.00024
1.00033
1.00044
1.00055
1.00063
1.00066
1.00067
1.00064
1.00058
1.00053
1.00051
1.00052
1.00055
1.00061
1.00066
1.00068
1.00066
1.00064
1.0006
1.00057
1.00056
1.00056
0.999573
0.999561
0.999545
0.999521
0.999479
0.999433
0.999406
0.999401
0.999414
0.999441
0.999463
0.999461
0.999434
0.999396
0.999354
0.999326
0.99933
0.99937
0.999438
0.999531
0.999641
0.999748
0.99984
0.999917
0.999974
1.00001
1.00003
1.00004
1.00005
1.00005
1.00005
1.00004
1.00004
1.00003
1.00002
1.00001
1
0.999989
0.999982
0.999978
0.999976
0.999975
0.999982
0.999994
1.00001
1.00004
1.0001
1.00017
1.00027
1.00038
1.00049
1.00058
1.00064
1.00067
1.00066
1.00062
1.00057
1.00053
1.00052
1.00054
1.00059
1.00064
1.00066
1.00067
1.00063
1.00058
1.00052
1.00049
1.00047
1.00045
0.999656
0.999641
0.999623
0.999594
0.999539
0.999478
0.999436
0.999416
0.999411
0.999426
0.99945
0.999454
0.999429
0.999397
0.999365
0.999329
0.999317
0.99935
0.999411
0.999488
0.999594
0.999713
0.999809
0.999885
0.999956
1
1.00002
1.00003
1.00005
1.00005
1.00004
1.00004
1.00004
1.00002
1.00001
1.00001
1
0.999982
0.999983
0.999986
0.999975
0.999973
0.999991
1
1.00002
1.00006
1.00013
1.00021
1.00031
1.00043
1.00053
1.00061
1.00066
1.00068
1.00065
1.0006
1.00057
1.00054
1.00054
1.00057
1.00062
1.00065
1.00066
1.00064
1.00059
1.00051
1.00044
1.0004
1.00037
1.00036
0.999724
0.999722
0.9997
0.999652
0.999597
0.999538
0.999473
0.99943
0.999422
0.999426
0.999429
0.999436
0.99943
0.999399
0.999359
0.999333
0.99932
0.999328
0.999377
0.999461
0.999558
0.999663
0.999774
0.999867
0.999931
0.999979
1.00002
1.00003
1.00003
1.00004
1.00004
1.00004
1.00003
1.00003
1.00002
1.00001
0.999997
0.999996
0.999986
0.999977
0.999981
0.999986
0.999987
1
1.00004
1.00009
1.00015
1.00024
1.00036
1.00046
1.00056
1.00064
1.00067
1.00066
1.00064
1.0006
1.00056
1.00055
1.00057
1.0006
1.00063
1.00065
1.00065
1.0006
1.00053
1.00045
1.00038
1.00032
1.00028
1.00028
0.999798
0.999789
0.999761
0.999714
0.999657
0.99959
0.99952
0.999464
0.999436
0.999426
0.999421
0.999422
0.99942
0.999398
0.99936
0.999331
0.999317
0.999317
0.999351
0.99943
0.999526
0.999624
0.999734
0.999838
0.999908
0.999958
1.00001
1.00003
1.00003
1.00004
1.00004
1.00003
1.00002
1.00003
1.00002
1
0.999998
1
0.999989
0.999977
0.999985
0.99999
0.999989
1.00001
1.00006
1.00011
1.00018
1.00028
1.00039
1.00049
1.00058
1.00065
1.00067
1.00066
1.00063
1.0006
1.00057
1.00057
1.0006
1.00063
1.00065
1.00065
1.00062
1.00056
1.00047
1.00039
1.00031
1.00025
1.00021
1.00019
0.999869
0.999841
0.999812
0.999778
0.999714
0.999635
0.999572
0.999514
0.999456
0.999426
0.999426
0.999419
0.999402
0.999391
0.99937
0.999328
0.999301
0.999312
0.999342
0.999394
0.999487
0.9996
0.999698
0.99979
0.999883
0.99995
0.999983
1.00001
1.00004
1.00004
1.00003
1.00003
1.00003
1.00001
1.00001
1.00001
1.00001
0.999989
0.99999
0.999995
0.999982
0.99998
1.00001
1.00003
1.00006
1.00013
1.00023
1.00032
1.00042
1.00053
1.00061
1.00065
1.00067
1.00067
1.00063
1.00059
1.00059
1.0006
1.00062
1.00064
1.00066
1.00063
1.00057
1.0005
1.00042
1.00033
1.00025
1.0002
1.00016
1.00012
0.999915
0.999896
0.999866
0.99982
0.999763
0.999697
0.999625
0.999555
0.999494
0.999449
0.999425
0.999415
0.999403
0.999384
0.999362
0.999329
0.999299
0.999296
0.999325
0.999375
0.999454
0.999561
0.999665
0.999757
0.999849
0.999926
0.999971
1
1.00003
1.00004
1.00003
1.00003
1.00003
1.00001
1.00001
1.00001
1.00001
0.999994
0.999994
0.999993
0.999984
0.999988
1.00001
1.00004
1.00009
1.00017
1.00026
1.00035
1.00045
1.00055
1.00062
1.00066
1.00068
1.00067
1.00063
1.00061
1.00061
1.00062
1.00064
1.00065
1.00064
1.00059
1.00052
1.00044
1.00035
1.00027
1.0002
1.00014
1.0001
1.00007
0.999954
0.999946
0.99991
0.999852
0.999807
0.999758
0.999678
0.999597
0.99954
0.999486
0.999433
0.999414
0.999413
0.999386
0.999347
0.999326
0.999306
0.999281
0.999298
0.999362
0.999434
0.999513
0.999626
0.999739
0.999816
0.999886
0.999963
1
1.00001
1.00003
1.00004
1.00003
1.00001
1.00002
1.00002
0.999998
0.999998
1.00001
0.999996
0.999978
0.999993
1.00001
1.00001
1.00005
1.00013
1.0002
1.00027
1.00039
1.0005
1.00057
1.00063
1.00069
1.00069
1.00066
1.00064
1.00064
1.00062
1.00063
1.00065
1.00065
1.0006
1.00054
1.00047
1.00037
1.00028
1.00022
1.00016
1.0001
1.00005
1.00003
1
0.999971
0.999934
0.999899
0.99985
0.999791
0.999733
0.999662
0.99958
0.999515
0.999471
0.999433
0.999408
0.999391
0.999359
0.999319
0.999292
0.999281
0.999287
0.999328
0.999404
0.999491
0.999588
0.999695
0.999792
0.999869
0.999934
0.999985
1.00001
1.00002
1.00003
1.00003
1.00002
1.00002
1.00001
1.00001
1
0.999999
0.999992
0.99999
0.999995
1.00001
1.00003
1.00008
1.00014
1.00022
1.00032
1.00042
1.00051
1.00059
1.00066
1.00069
1.00069
1.00068
1.00066
1.00064
1.00063
1.00065
1.00064
1.00061
1.00057
1.00049
1.00039
1.00031
1.00024
1.00017
1.00011
1.00007
1.00003
0.999987
1.00003
0.999993
0.99996
0.999932
0.999884
0.999827
0.999781
0.999719
0.999629
0.999553
0.99951
0.999466
0.999419
0.999396
0.999375
0.999323
0.999277
0.999273
0.999281
0.999297
0.999364
0.999469
0.99956
0.999648
0.999763
0.999858
0.999906
0.999956
1.00001
1.00002
1.00001
1.00003
1.00004
1.00001
1
1.00002
1.00001
0.999979
0.999989
1.00001
0.999993
1
1.00006
1.0001
1.00015
1.00024
1.00036
1.00044
1.00053
1.00063
1.00068
1.00069
1.0007
1.0007
1.00067
1.00064
1.00065
1.00065
1.00062
1.00058
1.00052
1.00043
1.00033
1.00025
1.00019
1.00013
1.00008
1.00005
1.00001
0.999971
1.00003
1.00003
0.999991
0.999937
0.999908
0.99988
0.999818
0.999749
0.999691
0.999616
0.999538
0.999495
0.999465
0.999416
0.99937
0.999338
0.999294
0.999252
0.999253
0.999288
0.999337
0.999416
0.999527
0.999633
0.999725
0.999817
0.999899
0.999949
0.999983
1.00001
1.00003
1.00003
1.00002
1.00003
1.00002
1
0.999992
0.999993
0.999989
0.999986
1
1.00003
1.00006
1.00011
1.00019
1.00028
1.00036
1.00047
1.00058
1.00065
1.00069
1.00073
1.00073
1.00069
1.00067
1.00067
1.00064
1.00061
1.00059
1.00055
1.00045
1.00036
1.00028
1.0002
1.00013
1.0001
1.00008
1.00002
0.99998
0.999975
1.00005
1.00004
1
0.999959
0.999931
0.999905
0.999854
0.999792
0.999736
0.999669
0.999591
0.999534
0.999501
0.999452
0.99939
0.999347
0.999308
0.999253
0.999229
0.999264
0.999315
0.999374
0.999482
0.999609
0.999699
0.99978
0.999879
0.999943
0.999963
0.999998
1.00004
1.00003
1.00002
1.00003
1.00003
0.999991
0.999985
1
0.999986
0.999978
1.00002
1.00005
1.00007
1.00013
1.00022
1.0003
1.00038
1.00051
1.00061
1.00067
1.00072
1.00075
1.00073
1.0007
1.00068
1.00066
1.00062
1.00059
1.00055
1.00048
1.00039
1.0003
1.00022
1.00015
1.0001
1.00007
1.00005
1.00001
0.999979
0.99996
1.00008
1.00003
1
0.999995
0.999951
0.999903
0.999886
0.999849
0.999768
0.999703
0.999661
0.999593
0.999522
0.999488
0.999446
0.999366
0.999301
0.999271
0.999237
0.99922
0.999272
0.999362
0.999444
0.999547
0.999676
0.999776
0.99984
0.999909
0.999974
0.999997
1.00001
1.00003
1.00004
1.00002
1.00001
1.00001
0.999999
0.999975
0.999984
1.00001
1.00002
1.00003
1.0001
1.00016
1.00022
1.00031
1.00044
1.00054
1.00062
1.00071
1.00077
1.00075
1.00073
1.00072
1.00067
1.00062
1.0006
1.00057
1.00049
1.00041
1.00034
1.00026
1.00016
1.00011
1.0001
1.00005
1.00001
1.00001
0.999993
0.999951
1.00006
1.00004
1.00002
0.999992
0.99996
0.999931
0.999902
0.999868
0.999818
0.999756
0.9997
0.999646
0.999581
0.999524
0.999479
0.999412
0.999328
0.999273
0.99924
0.999213
0.999234
0.999319
0.999413
0.999506
0.999631
0.999752
0.999824
0.999887
0.99996
0.999994
0.999998
1.00002
1.00004
1.00002
1
1.00002
1
0.999978
0.999993
1.00001
1.00002
1.00005
1.00011
1.00017
1.00024
1.00035
1.00048
1.00057
1.00067
1.00075
1.00078
1.00076
1.00074
1.0007
1.00064
1.0006
1.00056
1.0005
1.00043
1.00036
1.00027
1.00019
1.00014
1.00009
1.00006
1.00004
1.00002
0.999994
0.99998
0.999978
1.00004
1.00006
1.00003
0.999976
0.999966
0.999963
0.999912
0.99987
0.999863
0.999818
0.999732
0.999684
0.999655
0.999579
0.999499
0.999457
0.999391
0.999285
0.999227
0.999227
0.999226
0.999254
0.999365
0.999494
0.999586
0.999691
0.999819
0.999892
0.99992
0.999973
1.00002
1.00001
1
1.00003
1.00003
0.999992
0.99999
1.00002
1
0.999988
1.00003
1.00008
1.0001
1.00017
1.00029
1.00039
1.00049
1.00062
1.00074
1.00077
1.00077
1.00078
1.00074
1.00065
1.00061
1.00058
1.00051
1.00043
1.00039
1.00031
1.0002
1.00014
1.00012
1.00007
1.00003
1.00003
1.00003
0.99999
0.999973
0.999995
1.00006
1.00003
1.00002
1
0.999974
0.999941
0.99993
0.999911
0.999872
0.999841
0.9998
0.999735
0.99968
0.999638
0.999571
0.999491
0.999423
0.999343
0.999252
0.999209
0.999215
0.999241
0.999312
0.999436
0.999559
0.999663
0.999776
0.999872
0.999922
0.99996
1
1.00001
1
1.00002
1.00002
1
1
1.00001
1
1.00001
1.00004
1.00007
1.00012
1.0002
1.00031
1.00042
1.00055
1.00068
1.00075
1.00079
1.00081
1.00077
1.00069
1.00063
1.00058
1.00051
1.00045
1.0004
1.00032
1.00023
1.00017
1.00012
1.00007
1.00005
1.00006
1.00002
0.999996
1.00001
1.00001
0.99998
1.00005
1.00001
1.00001
1.00002
0.999975
0.999928
0.999938
0.999938
0.999887
0.999855
0.99985
0.999794
0.999711
0.999677
0.999647
0.999549
0.99945
0.999395
0.999311
0.999208
0.99919
0.999244
0.999287
0.999362
0.999517
0.999656
0.99973
0.999823
0.999931
0.999963
0.999957
1
1.00003
0.999997
0.999989
1.00003
1.00002
0.999985
1.00001
1.00005
1.00003
1.00006
1.00016
1.00025
1.00032
1.00046
1.00062
1.00071
1.00076
1.00082
1.00081
1.00072
1.00065
1.00061
1.00052
1.00044
1.00041
1.00035
1.00025
1.00018
1.00014
1.00009
1.00005
1.00005
1.00006
1.00002
0.999996
1.00001
1.00002
1
1
1.00003
1.00002
0.999974
0.999969
0.999969
0.999927
0.999909
0.999927
0.999901
0.999845
0.999823
0.999793
0.99972
0.999664
0.999626
0.999535
0.999419
0.99934
0.99927
0.999201
0.999199
0.99927
0.999354
0.999454
0.999593
0.99972
0.999806
0.999881
0.999945
0.999976
0.999986
0.999999
1.00001
1.00001
1.00001
1.00001
1.00001
1.00002
1.00002
1.00004
1.0001
1.00017
1.00025
1.00038
1.00053
1.00063
1.00073
1.00082
1.00082
1.00076
1.00071
1.00064
1.00053
1.00045
1.00042
1.00035
1.00026
1.00021
1.00017
1.00009
1.00005
1.00008
1.00006
1.00002
1.00003
1.00004
1
0.999999
1.00005
0.999992
1.00002
1
0.999969
0.999967
0.999968
0.99993
0.999907
0.99993
0.999925
0.999871
0.99984
0.999835
0.999781
0.999703
0.999668
0.999615
0.999486
0.999369
0.999316
0.999249
0.999187
0.999237
0.999347
0.999422
0.999521
0.999685
0.999797
0.999836
0.999909
0.99999
0.999984
0.999967
1.00002
1.00003
0.999985
0.999993
1.00004
1.00002
1
1.00007
1.00014
1.00018
1.00029
1.00045
1.00056
1.00065
1.00077
1.00083
1.00078
1.00073
1.00068
1.00057
1.00046
1.00041
1.00037
1.00028
1.00022
1.00018
1.00012
1.00006
1.00006
1.00007
1.00005
1.00004
1.00003
1.00003
1.00003
1.00002
1.00004
1.00002
0.999962
0.999969
1.00001
0.999966
0.999912
0.999943
0.999952
0.9999
0.9999
0.999931
0.999881
0.999816
0.99982
0.999797
0.999702
0.999634
0.999584
0.99946
0.999324
0.999274
0.999254
0.999229
0.999281
0.999409
0.999517
0.999607
0.999733
0.999847
0.999897
0.99993
0.999983
1.00001
0.999993
0.999992
1.00001
1.00001
0.999991
1.00001
1.00006
1.00008
1.00013
1.00024
1.00037
1.00047
1.00059
1.00073
1.00079
1.00077
1.00076
1.00072
1.00059
1.00048
1.00044
1.00037
1.00027
1.00024
1.00022
1.00013
1.00006
1.00008
1.00008
1.00003
1.00005
1.00009
1.00004
1
1.00006
1.00008
1.00003
0.999968
0.99996
0.999974
0.999979
0.999956
0.999932
0.999928
0.999933
0.999919
0.999906
0.999917
0.999908
0.999858
0.999829
0.999828
0.999775
0.999685
0.999624
0.999545
0.999403
0.999301
0.999284
0.999266
0.999262
0.999362
0.999496
0.999573
0.999671
0.999814
0.999888
0.999903
0.999965
1.00002
0.999989
0.999976
1.00002
1.00001
0.999974
1.00002
1.00008
1.00009
1.00016
1.0003
1.00041
1.0005
1.00065
1.00076
1.00077
1.00076
1.00074
1.00064
1.00051
1.00044
1.00038
1.00029
1.00024
1.00022
1.00015
1.0001
1.00008
1.00007
1.00005
1.00006
1.00007
1.00006
1.00006
1.00006
1.00005
1.00006
1.00008
0.999916
0.999995
0.99998
0.999911
0.999946
0.999981
0.999908
0.999878
0.999946
0.999944
0.999874
0.999892
0.999928
0.999858
0.999801
0.999829
0.999789
0.999653
0.999571
0.999519
0.999386
0.999272
0.999287
0.999324
0.999328
0.999414
0.999573
0.99967
0.999728
0.999841
0.999941
0.999949
0.999953
1.00001
1.00002
0.99997
0.999974
1.00003
1.00003
1.00003
1.00013
1.00025
1.00032
1.00042
1.00059
1.00069
1.00071
1.00075
1.00077
1.00066
1.00053
1.00049
1.00041
1.00027
1.00023
1.00025
1.00017
1.00008
1.0001
1.00011
1.00003
1.00004
1.00011
1.00009
1.00003
1.00007
1.00011
1.00005
1.00004
1.00011
0.999954
0.999935
0.999932
0.999953
0.999941
0.999919
0.999923
0.999914
0.999897
0.999916
0.999922
0.999892
0.999888
0.999898
0.999858
0.99982
0.999816
0.999754
0.999633
0.999547
0.999473
0.999357
0.999293
0.999325
0.999359
0.999398
0.999516
0.999646
0.999716
0.999799
0.999904
0.999943
0.999947
0.999987
1
0.999973
0.999983
1.00002
1.00003
1.00007
1.00017
1.00027
1.00035
1.00049
1.00062
1.00067
1.00072
1.00075
1.00069
1.00058
1.00051
1.00042
1.0003
1.00025
1.00024
1.00017
1.00012
1.00012
1.00009
1.00004
1.00007
1.0001
1.00007
1.00008
1.00011
1.00008
1.00005
1.0001
1.00011
1.00006
0.999959
0.999874
0.999907
0.999983
0.99993
0.999866
0.999926
0.999948
0.999865
0.999867
0.999949
0.999921
0.999845
0.999888
0.999928
0.999845
0.999794
0.999822
0.999744
0.999574
0.999501
0.999471
0.999357
0.999293
0.999379
0.999456
0.999471
0.999576
0.99974
0.999798
0.999816
0.999917
0.999988
0.999949
0.999943
1.00002
1.00002
0.999979
1.00004
1.00016
1.00018
1.00024
1.00042
1.00054
1.00057
1.00066
1.00075
1.0007
1.00058
1.00055
1.00048
1.00031
1.00023
1.00026
1.00019
1.0001
1.00012
1.00014
1.00005
1.00003
1.00011
1.00012
1.00006
1.00009
1.00014
1.0001
1.00006
1.00011
1.00014
1.00008
0.999861
0.99993
0.999933
0.999878
0.999913
0.999946
0.999884
0.999865
0.999917
0.999898
0.999858
0.999905
0.999925
0.999867
0.999869
0.999913
0.999865
0.999793
0.999776
0.999702
0.999554
0.99947
0.999441
0.999379
0.999362
0.999443
0.999521
0.999576
0.999675
0.999779
0.999831
0.999876
0.99993
0.999953
0.999964
0.99999
1.00001
1.00003
1.00009
1.00014
1.0002
1.00031
1.00043
1.0005
1.00059
1.00068
1.00067
1.00061
1.00059
1.0005
1.00034
1.00028
1.00026
1.00017
1.00011
1.00016
1.00013
1.00004
1.00007
1.00013
1.00008
1.00007
1.00016
1.00014
1.00006
1.00012
1.00017
1.00009
1.00008
1.00017
0.99985
0.999935
0.999905
0.999844
0.999901
0.999951
0.999876
0.999833
0.999903
0.999913
0.999838
0.999859
0.999939
0.999899
0.999836
0.999898
0.999931
0.999826
0.999761
0.999769
0.999661
0.999491
0.999462
0.999482
0.999412
0.999411
0.999551
0.999631
0.99963
0.99973
0.999862
0.999862
0.999854
0.999954
1
0.999954
0.999992
1.0001
1.00011
1.00011
1.00024
1.00037
1.00038
1.00046
1.00062
1.00064
1.00057
1.00059
1.00056
1.00039
1.00029
1.00029
1.00022
1.00011
1.00013
1.00016
1.00008
1.00004
1.0001
1.00012
1.00008
1.00011
1.00017
1.00014
1.0001
1.00013
1.00017
1.00014
1.0001
1.00014
0.999923
0.999805
0.99983
0.999948
0.999887
0.999817
0.999907
0.999922
0.99981
0.999831
0.999928
0.999872
0.999818
0.99991
0.999933
0.999844
0.999861
0.999923
0.999833
0.999717
0.999704
0.999638
0.999494
0.999458
0.999509
0.999504
0.999512
0.999614
0.999706
0.999732
0.999781
0.999861
0.999903
0.999913
0.999947
1
1.00004
1.00006
1.0001
1.00019
1.00025
1.00029
1.00039
1.00051
1.00053
1.00053
1.00059
1.00056
1.00041
1.00035
1.00034
1.00021
1.00011
1.00018
1.00018
1.00005
1.00006
1.00015
1.00009
1.00003
1.00016
1.0002
1.00009
1.00012
1.00023
1.00015
1.00007
1.0002
1.00023
1.00008
0.999849
0.999803
0.999842
0.999891
0.999862
0.999835
0.999872
0.999891
0.999834
0.99981
0.999874
0.999889
0.99983
0.999849
0.999923
0.999891
0.999833
0.999887
0.999899
0.999769
0.999689
0.999695
0.999603
0.999483
0.999522
0.999591
0.999559
0.999592
0.999732
0.999777
0.999754
0.999842
0.999936
0.999907
0.999919
1.00003
1.00006
1.00003
1.00012
1.00022
1.00022
1.00026
1.00041
1.00046
1.00044
1.00051
1.00056
1.00045
1.00036
1.00036
1.00027
1.00015
1.00016
1.00019
1.00011
1.00008
1.00012
1.00011
1.00007
1.00012
1.00017
1.00015
1.00016
1.00018
1.00017
1.00018
1.00018
1.00017
1.00018
1.00019
0.999734
0.999907
0.99987
0.999729
0.999842
0.999953
0.99981
0.999758
0.999905
0.999881
0.999743
0.999829
0.999943
0.999833
0.999784
0.999923
0.999928
0.999803
0.999836
0.999896
0.999756
0.999628
0.999662
0.999639
0.999527
0.999552
0.999669
0.999679
0.999672
0.999776
0.999863
0.999847
0.999861
0.999953
0.999998
0.999974
1.00001
1.00011
1.00013
1.00012
1.0002
1.00032
1.00033
1.00034
1.00047
1.00051
1.00041
1.00038
1.00042
1.00029
1.00014
1.0002
1.00023
1.00009
1.00008
1.0002
1.00013
1.00001
1.00013
1.00023
1.00011
1.00011
1.00027
1.00023
1.00009
1.0002
1.0003
1.00016
1.0001
1.00026
0.999828
0.99981
0.999787
0.999816
0.999828
0.999828
0.999842
0.99982
0.999802
0.999834
0.999826
0.99979
0.999836
0.999879
0.999824
0.999818
0.9999
0.999886
0.999812
0.999836
0.999838
0.999707
0.999635
0.999672
0.999636
0.999579
0.999661
0.99975
0.999737
0.999778
0.999889
0.999903
0.999884
0.999961
1.00001
0.999976
1.00001
1.00009
1.00009
1.00009
1.0002
1.00026
1.00025
1.00034
1.00044
1.0004
1.00037
1.0004
1.00033
1.0002
1.00021
1.00022
1.00013
1.00012
1.00019
1.00013
1.00007
1.00015
1.00017
1.00013
1.00019
1.00025
1.00018
1.00018
1.00026
1.00021
1.00017
1.00025
1.00024
1.00014
0.999875
0.999663
0.999739
0.999928
0.999807
0.999684
0.999862
0.999917
0.999714
0.999721
0.999905
0.999833
0.999696
0.999835
0.999933
0.999782
0.999764
0.999936
0.999905
0.999748
0.999792
0.999844
0.999683
0.99959
0.999698
0.99972
0.99964
0.999719
0.999872
0.999867
0.999838
0.999947
1.00002
0.999952
0.999943
1.00004
1.00005
0.999973
1.00003
1.00014
1.00013
1.00011
1.00026
1.00037
1.0003
1.00032
1.00044
1.00036
1.00019
1.00023
1.00028
1.00012
1.00008
1.00023
1.0002
1.00004
1.00012
1.00025
1.00013
1.00009
1.00028
1.0003
1.00013
1.00019
1.00034
1.00024
1.00012
1.00027
1.00033
1.00015
0.999683
0.99981
0.999819
0.999713
0.999784
0.999857
0.999764
0.999752
0.99984
0.999781
0.999711
0.99981
0.99984
0.999746
0.999787
0.999883
0.999818
0.999783
0.999886
0.999877
0.999755
0.999753
0.999778
0.999678
0.999637
0.999728
0.999765
0.999761
0.999855
0.999947
0.999949
0.999973
1.00003
1.00001
0.99999
1.00001
0.999993
0.999968
1.00001
1.00004
1.00004
1.00012
1.00023
1.00024
1.00028
1.00038
1.00035
1.00025
1.00027
1.00027
1.00013
1.00012
1.00023
1.00016
1.00007
1.00019
1.00021
1.00009
1.00017
1.00032
1.00022
1.00017
1.00033
1.0003
1.00015
1.00026
1.00037
1.00019
1.00016
1.00035
0.999655
0.999877
0.999794
0.99962
0.999773
0.999912
0.999732
0.999656
0.999847
0.999843
0.999643
0.999711
0.999894
0.999785
0.999667
0.999836
0.999915
0.999752
0.99976
0.999922
0.999841
0.999668
0.999734
0.9998
0.999668
0.999652