# vtk DataFile Version 4.0
SiwiRVisFile
ASCII
DATASET STRUCTURED_POINTS
DIMENSIONS 70 80 1
ORIGIN 0 0 0
SPACING 1 1 1
POINT_DATA 5600

SCALARS density double 1
LOOKUP_TABLE default
0.999735
0.999732
0.999731
0.999733
0.999734
0.999739
0.999748
0.999758
0.999774
0.999799
0.999834
0.999878
0.999932
1
1.00009
1.00018
1.00028
1.00039
1.00049
1.00059
1.00067
1.00073
1.00077
1.00079
1.00079
1.00077
1.00073
1.00068
1.00062
1.00056
1.00048
1.00039
1.0003
1.00019
1.00008
0.999973
0.999866
0.999763
0.999671
0.999586
0.999506
0.999432
0.999369
0.999313
0.999269
0.999243
0.999238
0.999256
0.999297
0.999363
0.999447
0.999544
0.99965
0.999758
0.999859
0.999952
1.00004
1.00011
1.00016
1.00021
1.00025
1.00027
1.00029
1.0003
1.00031
1.00032
1.00032
1.00032
1.00032
1.00032
0.999731
0.999732
0.999732
0.999732
0.999733
0.99974
0.999748
0.999758
0.999777
0.999804
0.999836
0.999883
0.999943
1.00001
1.00009
1.00019
1.00029
1.00039
1.00049
1.00058
1.00066
1.00071
1.00075
1.00077
1.00076
1.00074
1.00071
1.00066
1.0006
1.00054
1.00047
1.00038
1.00028
1.00019
1.00008
0.999977
0.999876
0.999779
0.999685
0.999596
0.999519
0.999448
0.999382
0.99933
0.999292
0.999266
0.999258
0.999277
0.999316
0.999373
0.999452
0.999547
0.999646
0.999748
0.99985
0.999944
1.00003
1.0001
1.00016
1.00021
1.00024
1.00027
1.00029
1.0003
1.00031
1.00032
1.00032
1.00032
1.00032
1.00032
0.999729
0.99973
0.99973
0.999731
0.999734
0.999738
0.999745
0.999758
0.999777
0.999803
0.999839
0.999886
0.999947
1.00002
1.0001
1.0002
1.0003
1.0004
1.00049
1.00058
1.00065
1.0007
1.00073
1.00074
1.00073
1.00071
1.00068
1.00063
1.00058
1.00051
1.00044
1.00036
1.00027
1.00018
1.00008
0.999987
0.999891
0.999798
0.999706
0.99962
0.999542
0.999471
0.999409
0.999357
0.999318
0.999293
0.999285
0.999297
0.99933
0.999385
0.999457
0.999545
0.999642
0.999742
0.999841
0.999934
1.00002
1.00009
1.00015
1.0002
1.00024
1.00027
1.00029
1.0003
1.00031
1.00032
1.00032
1.00032
1.00032
1.00032
0.999729
0.999727
0.999727
0.999729
0.999732
0.999735
0.999743
0.999758
0.999775
0.999802
0.999843
0.999891
0.999951
1.00003
1.00011
1.00021
1.0003
1.0004
1.00049
1.00057
1.00064
1.00068
1.00071
1.00071
1.0007
1.00068
1.00064
1.00059
1.00054
1.00047
1.0004
1.00033
1.00025
1.00017
1.00008
0.999998
0.99991
0.99982
0.999736
0.999656
0.999576
0.999506
0.999448
0.999396
0.999353
0.999328
0.999318
0.999323
0.99935
0.999401
0.999467
0.999546
0.999639
0.999737
0.999832
0.999924
1.00001
1.00009
1.00015
1.0002
1.00024
1.00027
1.00029
1.0003
1.00031
1.00032
1.00032
1.00033
1.00033
1.00033
0.999723
0.999724
0.999726
0.999726
0.999727
0.999734
0.999742
0.999754
0.999775
0.999804
0.999843
0.999895
0.999959
1.00004
1.00012
1.00022
1.00031
1.00041
1.00049
1.00056
1.00062
1.00065
1.00067
1.00067
1.00065
1.00062
1.00059
1.00054
1.00049
1.00043
1.00036
1.00029
1.00022
1.00015
1.00008
1.00001
0.999932
0.999854
0.999773
0.999694
0.99962
0.999552
0.999492
0.999442
0.999402
0.999373
0.999357
0.99936
0.99938
0.999419
0.999479
0.999554
0.999638
0.99973
0.999824
0.999916
1
1.00008
1.00014
1.00019
1.00023
1.00027
1.00029
1.0003
1.00031
1.00032
1.00033
1.00033
1.00033
1.00033
0.999721
0.999722
0.999722
0.999722
0.999725
0.999731
0.999739
0.999751
0.999776
0.999807
0.999845
0.999899
0.999968
1.00004
1.00013
1.00022
1.00032
1.0004
1.00048
1.00055
1.0006
1.00062
1.00063
1.00063
1.0006
1.00057
1.00053
1.00048
1.00043
1.00037
1.00032
1.00025
1.00019
1.00014
1.00008
1.00002
0.999955
0.99989
0.999815
0.99974
0.999672
0.999607
0.999545
0.999495
0.999456
0.999423
0.999402
0.9994
0.999415
0.999445
0.999496
0.999564
0.999641
0.999726
0.999818
0.999908
0.999991
1.00007
1.00013
1.00019
1.00023
1.00026
1.00029
1.0003
1.00032
1.00033
1.00033
1.00033
1.00034
1.00034
0.99972
0.999718
0.999716
0.999719
0.999723
0.999726
0.999737
0.999754
0.999775
0.999807
0.999853
0.999908
0.999973
1.00005
1.00014
1.00023
1.00032
1.0004
1.00047
1.00053
1.00057
1.00059
1.00059
1.00057
1.00054
1.00051
1.00046
1.00042
1.00037
1.00032
1.00026
1.00021
1.00017
1.00012
1.00008
1.00003
0.999982
0.999923
0.99986
0.999794
0.999725
0.999661
0.999607
0.999557
0.999513
0.999481
0.99946
0.999448
0.999454
0.99948
0.99952
0.999576
0.999648
0.999729
0.999812
0.999898
0.999982
1.00006
1.00012
1.00018
1.00023
1.00026
1.00028
1.0003
1.00032
1.00033
1.00033
1.00034
1.00034
1.00034
0.999714
0.999712
0.999714
0.999717
0.999719
0.999724
0.999737
0.999756
0.999778
0.999812
0.99986
0.999916
0.999982
1.00006
1.00014
1.00023
1.00031
1.00039
1.00045
1.0005
1.00053
1.00054
1.00053
1.00051
1.00048
1.00045
1.0004
1.00035
1.00031
1.00026
1.00021
1.00017
1.00013
1.0001
1.00007
1.00004
1.00001
0.999958
0.999905
0.999846
0.999782
0.999721
0.99967
0.999621
0.999577
0.999543
0.999519
0.999502
0.999501
0.999519
0.99955
0.999597
0.99966
0.999733
0.999811
0.999893
0.999974
1.00005
1.00011
1.00017
1.00022
1.00025
1.00028
1.0003
1.00032
1.00033
1.00034
1.00034
1.00035
1.00035
0.999707
0.99971
0.999712
0.999711
0.999716
0.999726
0.999737
0.999754
0.999784
0.999821
0.999865
0.999923
0.999993
1.00007
1.00014
1.00023
1.00031
1.00037
1.00042
1.00046
1.00048
1.00049
1.00047
1.00045
1.00042
1.00038
1.00034
1.00029
1.00024
1.0002
1.00016
1.00013
1.0001
1.00008
1.00007
1.00005
1.00003
0.999995
0.999948
0.999892
0.999839
0.999785
0.99973
0.999684
0.999647
0.99961
0.99958
0.999564
0.999559
0.999563
0.999587
0.999627
0.999678
0.99974
0.999814
0.999892
0.999966
1.00004
1.00011
1.00016
1.00021
1.00025
1.00028
1.0003
1.00032
1.00033
1.00034
1.00034
1.00035
1.00035
0.999705
0.999705
0.999706
0.999708
0.999715
0.999725
0.999739
0.999759
0.999789
0.999828
0.999874
0.999932
0.999999
1.00007
1.00014
1.00022
1.00029
1.00034
1.00039
1.00042
1.00043
1.00043
1.00041
1.00039
1.00035
1.00031
1.00027
1.00023
1.00019
1.00015
1.00012
1.00009
1.00007
1.00007
1.00006
1.00006
1.00005
1.00002
0.999986
0.99994
0.999891
0.999842
0.999793
0.999751
0.999714
0.999679
0.99965
0.99963
0.999618
0.999617
0.999632
0.999661
0.999703
0.999758
0.999822
0.999892
0.999963
1.00003
1.0001
1.00015
1.0002
1.00024
1.00027
1.0003
1.00032
1.00033
1.00034
1.00035
1.00035
1.00035
0.999702
0.999699
0.999701
0.999709
0.999715
0.999722
0.999742
0.999767
0.999795
0.999833
0.999884
0.999941
1
1.00007
1.00014
1.0002
1.00026
1.00031
1.00035
1.00036
1.00037
1.00036
1.00034
1.00031
1.00029
1.00025
1.00021
1.00017
1.00014
1.0001
1.00007
1.00006
1.00005
1.00005
1.00005
1.00006
1.00006
1.00004
1.00002
0.999984
0.999937
0.999892
0.999855
0.999817
0.999778
0.99975
0.999725
0.999699
0.999682
0.999679
0.999684
0.9997
0.999734
0.999782
0.999835
0.999896
0.999965
1.00003
1.00009
1.00015
1.0002
1.00024
1.00027
1.00029
1.00032
1.00033
1.00034
1.00035
1.00035
1.00035
0.999694
0.999696
0.999699
0.999705
0.999714
0.999727
0.999745
0.99977
0.999802
0.999842
0.999889
0.999943
1
1.00007
1.00013
1.00018
1.00023
1.00027
1.0003
1.00031
1.0003
1.00029
1.00027
1.00025
1.00022
1.00019
1.00016
1.00013
1.00009
1.00006
1.00004
1.00003
1.00003
1.00003
1.00005
1.00006
1.00007
1.00006
1.00004
1.00001
0.999978
0.999942
0.999908
0.999876
0.999848
0.999821
0.999796
0.999773
0.999755
0.999743
0.99974
0.999751
0.999774
0.999808
0.999856
0.999912
0.99997
1.00003
1.00009
1.00014
1.00019
1.00023
1.00027
1.00029
1.00031
1.00033
1.00034
1.00035
1.00035
1.00035
0.999686
0.999692
0.999697
0.9997
0.999713
0.999731
0.999749
0.999772
0.999808
0.999848
0.999891
0.999942
1
1.00006
1.00011
1.00016
1.0002
1.00022
1.00024
1.00024
1.00024
1.00022
1.0002
1.00018
1.00015
1.00013
1.00011
1.00009
1.00005
1.00003
1.00002
1.00001
1.00001
1.00003
1.00005
1.00006
1.00007
1.00008
1.00006
1.00003
1.00001
0.999986
0.999954
0.999931
0.999915
0.999891
0.999866
0.999849
0.999831
0.99981
0.999802
0.999807
0.999819
0.999843
0.999883
0.999932
0.999982
1.00004
1.00009
1.00014
1.00019
1.00023
1.00026
1.00029
1.00031
1.00032
1.00034
1.00034
1.00035
1.00036
0.999683
0.999685
0.999691
0.999702
0.999714
0.999729
0.999751
0.999779
0.99981
0.999846
0.999892
0.999939
0.999987
1.00004
1.00008
1.00012
1.00015
1.00017
1.00018
1.00017
1.00016
1.00015
1.00013
1.00011
1.0001
1.00008
1.00006
1.00005
1.00003
1.00001
0.999998
0.999994
1
1.00001
1.00003
1.00006
1.00007
1.00007
1.00007
1.00006
1.00004
1.00001
1
0.999985
0.99997
0.999957
0.999943
0.999923
0.999902
0.999885
0.999872
0.999863
0.999869
0.999889
0.999917
0.999955
1
1.00005
1.0001
1.00015
1.00019
1.00023
1.00026
1.00029
1.00031
1.00032
1.00033
1.00035
1.00035
1.00035
0.99968
0.999681
0.999688
0.999701
0.999714
0.999728
0.999752
0.99978
0.999808
0.999843
0.999886
0.999929
0.999969
1.00001
1.00005
1.00008
1.0001
1.00011
1.00011
1.0001
1.00008
1.00007
1.00006
1.00004
1.00004
1.00004
1.00002
1.00002
1.00001
0.999998
0.999985
0.999988
0.999998
1.00001
1.00003
1.00005
1.00006
1.00007
1.00007
1.00007
1.00005
1.00004
1.00004
1.00003
1.00002
1.00002
1.00002
0.999997
0.999977
0.999961
0.999942
0.999927
0.999927
0.999939
0.999958
0.999988
1.00003
1.00007
1.00011
1.00016
1.0002
1.00023
1.00026
1.00029
1.00031
1.00032
1.00033
1.00034
1.00035
1.00035
0.999673
0.999681
0.999689
0.999696
0.999711
0.999731
0.99975
0.999772
0.999804
0.999838
0.99987
0.999908
0.999949
0.999982
1.00001
1.00003
1.00005
1.00005
1.00004
1.00003
1.00001
0.999993
0.999986
0.999985
0.999984
0.999987
0.999996
0.999997
0.99999
0.999988
0.999988
0.999985
0.999989
1.00001
1.00002
1.00004
1.00005
1.00006
1.00006
1.00006
1.00006
1.00006
1.00006
1.00007
1.00008
1.00008
1.00008
1.00007
1.00006
1.00003
1.00001
0.999999
0.99999
0.999989
1.00001
1.00003
1.00006
1.0001
1.00014
1.00018
1.00021
1.00024
1.00027
1.00029
1.00031
1.00032
1.00034
1.00034
1.00035
1.00035
0.999674
0.99968
0.999686
0.999694
0.999708
0.999725
0.999743
0.999765
0.999792
0.999822
0.999852
0.999884
0.999918
0.999945
0.999965
0.999981
0.999989
0.999982
0.999967
0.999955
0.999938
0.999922
0.999919
0.999928
0.999936
0.999949
0.999968
0.999979
0.99998
0.999984
0.999989
0.999987
0.99999
1
1.00002
1.00003
1.00004
1.00005
1.00005
1.00006
1.00007
1.00008
1.00008
1.0001
1.00012
1.00013
1.00014
1.00014
1.00013
1.00011
1.00009
1.00007
1.00005
1.00005
1.00006
1.00008
1.0001
1.00013
1.00016
1.0002
1.00023
1.00026
1.00028
1.0003
1.00031
1.00033
1.00034
1.00034
1.00035
1.00035
0.999679
0.999676
0.999681
0.999695
0.999704
0.999713
0.999732
0.999755
0.999773
0.999796
0.999828
0.999856
0.999876
0.999901
0.999922
0.999926
0.999922
0.999918
0.999903
0.999878
0.999864
0.999861
0.999859
0.999867
0.999894
0.999922
0.999939
0.999959
0.999981
0.999986
0.999984
0.999993
1
1
1.00001
1.00002
1.00003
1.00003
1.00004
1.00006
1.00006
1.00008
1.00011
1.00013
1.00015
1.00018
1.0002
1.0002
1.00019
1.00018
1.00016
1.00013
1.00012
1.00012
1.00011
1.00012
1.00015
1.00017
1.00019
1.00022
1.00025
1.00028
1.00029
1.00031
1.00033
1.00033
1.00034
1.00035
1.00035
1.00034
0.999676
0.999678
0.999683
0.999687
0.999694
0.999705
0.999717
0.999732
0.999751
0.999771
0.999793
0.999817
0.999837
0.999854
0.999866
0.99987
0.999862
0.99985
0.999833
0.999812
0.999797
0.999796
0.999804
0.999822
0.999853
0.99989
0.999921
0.999949
0.999974
0.999987
0.999993
0.999998
1
1
1
1.00001
1.00001
1.00002
1.00003
1.00004
1.00006
1.00009
1.00012
1.00015
1.00019
1.00023
1.00025
1.00026
1.00026
1.00025
1.00023
1.00021
1.00019
1.00018
1.00017
1.00018
1.00019
1.00021
1.00024
1.00026
1.00028
1.0003
1.00032
1.00033
1.00033
1.00034
1.00035
1.00035
1.00035
1.00035
0.999675
0.99968
0.99968
0.999676
0.999681
0.999692
0.999696
0.999703
0.999722
0.999741
0.999752
0.999771
0.999795
0.999805
0.999806
0.999811
0.999806
0.999783
0.999762
0.999752
0.99974
0.999732
0.999751
0.999787
0.999817
0.999856
0.999908
0.999945
0.999963
0.999986
1.00001
1
0.999998
1.00001
1.00001
0.999993
0.999996
1.00001
1.00002
1.00003
1.00006
1.0001
1.00013
1.00017
1.00023
1.00026
1.00029
1.00032
1.00033
1.00031
1.00029
1.00028
1.00026
1.00024
1.00023
1.00024
1.00024
1.00026
1.00028
1.0003
1.00031
1.00033
1.00035
1.00035
1.00035
1.00036
1.00036
1.00035
1.00035
1.00035
0.999681
0.999673
0.999669
0.999671
0.999668
0.999665
0.99967
0.999678
0.999684
0.999696
0.999714
0.999727
0.999739
0.999752
0.999757
0.999751
0.99974
0.999725
0.999704
0.999687
0.999681
0.999687
0.999706
0.999742
0.99979
0.999839
0.999887
0.999931
0.999966
0.999988
1
1.00001
1.00001
1
0.999996
0.999991
0.999989
0.999991
1
1.00003
1.00006
1.00009
1.00014
1.00019
1.00024
1.00029
1.00034
1.00036
1.00037
1.00037
1.00036
1.00034
1.00032
1.00031
1.0003
1.00029
1.0003
1.00031
1.00032
1.00034
1.00036
1.00037
1.00037
1.00038
1.00038
1.00037
1.00037
1.00037
1.00036
1.00035
0.999676
0.999663
0.999658
0.999657
0.999648
0.999638
0.99964
0.999645
0.999644
0.99965
0.999668
0.999681
0.999685
0.999695
0.999705
0.999695
0.999677
0.999668
0.999652
0.999629
0.999626
0.999647
0.999669
0.999702
0.999763
0.999825
0.999869
0.999916
0.999967
0.999991
0.999998
1.00001
1.00002
1
0.999987
0.99999
0.999983
0.999975
0.999996
1.00003
1.00005
1.00009
1.00015
1.00021
1.00026
1.00032
1.00037
1.0004
1.00042
1.00043
1.00042
1.0004
1.00038
1.00037
1.00035
1.00035
1.00036
1.00036
1.00037
1.00038
1.0004
1.0004
1.0004
1.00041
1.0004
1.0004
1.00039
1.00038
1.00037
1.00036
0.999656
0.999655
0.999647
0.999628
0.99962
0.999617
0.999604
0.999597
0.999605
0.999611
0.999612
0.999625
0.999641
0.999643
0.999641
0.999641
0.999631
0.999608
0.999593
0.999588
0.999585
0.999597
0.999634
0.999684
0.999736
0.999797
0.999862
0.999913
0.99995
0.999985
1.00001
1.00001
1.00001
1.00001
0.999994
0.999976
0.999971
0.999981
0.999992
1.00001
1.00006
1.00011
1.00015
1.00021
1.00028
1.00034
1.00039
1.00043
1.00047
1.00047
1.00046
1.00046
1.00044
1.00042
1.00041
1.00041
1.00041
1.00041
1.00042
1.00044
1.00043
1.00044
1.00045
1.00044
1.00043
1.00043
1.00042
1.0004
1.00039
1.00039
0.999639
0.999633
0.99962
0.999603
0.99959
0.99958
0.999566
0.999557
0.999558
0.999563
0.999564
0.999572
0.999588
0.999593
0.999588
0.999586
0.999581
0.99956
0.999542
0.999544
0.99955
0.999561
0.999602
0.999663
0.999717
0.999776
0.999849
0.999906
0.99994
0.999977
1.00001
1.00001
1
1.00001
0.999995
0.999971
0.999967
0.999982
0.99999
1.00001
1.00006
1.00011
1.00016
1.00022
1.0003
1.00036
1.00041
1.00046
1.0005
1.00051
1.00051
1.00051
1.00049
1.00047
1.00047
1.00046
1.00046
1.00046
1.00047
1.00048
1.00048
1.00049
1.00048
1.00048
1.00047
1.00046
1.00044
1.00043
1.00042
1.00041
0.999617
0.999594
0.999582
0.999578
0.999556
0.999531
0.999526
0.999523
0.999508
0.999507
0.999523
0.999529
0.999527
0.99954
0.99955
0.999536
0.999522
0.999521
0.99951
0.999496
0.99951
0.999545
0.999579
0.999627
0.999702
0.999772
0.999825
0.999884
0.999944
0.999975
0.99999
1.00001
1.00002
0.999997
0.999982
0.999982
0.999974
0.999966
0.999991
1.00003
1.00006
1.00011
1.00018
1.00024
1.0003
1.00037
1.00044
1.00048
1.00051
1.00055
1.00056
1.00054
1.00054
1.00054
1.00052
1.00051
1.00051
1.00052
1.00052
1.00052
1.00053
1.00053
1.00052
1.00052
1.00052
1.00049
1.00048
1.00047
1.00046
1.00044
0.999567
0.999557
0.999547
0.99953
0.999512
0.999495
0.999481
0.999471
0.999465
0.999463
0.99947
0.99948
0.999486
0.999491
0.999499
0.999496
0.999482
0.999476
0.999474
0.999469
0.99948
0.999516
0.999561
0.99961
0.99968
0.999755
0.999814
0.999871
0.99993
0.999968
0.999986
1
1.00001
0.999997
0.999983
0.99998
0.999973
0.999972
0.999997
1.00003
1.00007
1.00012
1.00019
1.00025
1.00031
1.00038
1.00045
1.0005
1.00054
1.00057
1.00058
1.00058
1.00058
1.00057
1.00056
1.00056
1.00056
1.00056
1.00057
1.00057
1.00057
1.00057
1.00057
1.00056
1.00055
1.00054
1.00053
1.00051
1.00051
1.0005
0.999509
0.999514
0.999501
0.999472
0.999462
0.999457
0.999432
0.999415
0.999423
0.999426
0.999417
0.999428
0.999452
0.999453
0.999445
0.999456
0.999458
0.999437
0.999431
0.999452
0.999465
0.999482
0.999538
0.999609
0.999661
0.999724
0.999808
0.999869
0.999903
0.999951
0.999996
0.999999
0.999992
1
0.999995
0.999966
0.999966
0.999992
1
1.00002
1.00009
1.00015
1.00019
1.00025
1.00034
1.0004
1.00044
1.00051
1.00057
1.00058
1.0006
1.00062
1.00062
1.0006
1.00061
1.00061
1.0006
1.0006
1.00062
1.00062
1.00061
1.00062
1.00062
1.00061
1.0006
1.0006
1.00059
1.00057
1.00056
1.00056
0.999461
0.999445
0.999433
0.999428
0.999411
0.999391
0.999384
0.999378
0.999369
0.999372
0.999384
0.99939
0.9994
0.999416
0.999421
0.999416
0.999418
0.999417
0.999411
0.999418
0.999444
0.999475
0.999518
0.999582
0.99965
0.999714
0.999783
0.999849
0.9999
0.999942
0.999977
0.999995
0.999998
0.999995
0.999986
0.999975
0.999975
0.999986
1.00001
1.00005
1.0001
1.00015
1.00021
1.00028
1.00034
1.0004
1.00047
1.00052
1.00056
1.0006
1.00063
1.00064
1.00064
1.00065
1.00065
1.00064
1.00064
1.00066
1.00065
1.00066
1.00067
1.00067
1.00066
1.00066
1.00067
1.00065
1.00064
1.00064
1.00064
1.00062
0.999391
0.999371
0.999366
0.999369
0.99935
0.999328
0.999331
0.999334
0.99932
0.999321
0.999347
0.999359
0.999358
0.999377
0.9994
0.99939
0.99938
0.999396
0.999402
0.999393
0.999417
0.999471
0.999508
0.999551
0.999633
0.999711
0.999758
0.99982
0.999898
0.999937
0.999952
0.999988
1.00001
0.999986
0.999972
0.999989
0.999985
0.999976
1.00002
1.00007
1.0001
1.00015
1.00023
1.0003
1.00034
1.00041
1.00049
1.00053
1.00056
1.00062
1.00065
1.00065
1.00066
1.00068
1.00067
1.00067
1.00068
1.00069
1.00069
1.0007
1.00072
1.00072
1.00072
1.00072
1.00073
1.00072
1.00071
1.00071
1.00071
1.0007
0.999297
0.999309
0.999304
0.999281
0.999281
0.999286
0.999269
0.999263
0.999282
0.999291
0.999292
0.999317
0.999344
0.999349
0.999356
0.999374
0.999376
0.999365
0.999375
0.999396
0.999409
0.999438
0.999495
0.999552
0.999607
0.999677
0.999753
0.999813
0.999866
0.999921
0.999962
0.999979
0.999987
0.999993
0.999988
0.999975
0.999978
1
1.00003
1.00006
1.00012
1.00018
1.00024
1.0003
1.00037
1.00043
1.00048
1.00053
1.00059
1.00062
1.00064
1.00067
1.00069
1.00068
1.00069
1.00071
1.00071
1.00071
1.00074
1.00076
1.00076
1.00077
1.00079
1.00079
1.00078
1.00079
1.0008
1.00078
1.00078
1.0008
0.99922
0.999229
0.999222
0.999208
0.999211
0.999218
0.99921
0.999208
0.999229
0.999249
0.999256
0.999278
0.999316
0.999332
0.999332
0.99935
0.999368
0.999356
0.999354
0.999385
0.999408
0.99942
0.999472
0.999545
0.999591
0.999645
0.999735
0.999805
0.999842
0.9999
0.999962
0.999974
0.999971
0.999995
0.999997
0.999969
0.999978
1.00002
1.00003
1.00006
1.00014
1.0002
1.00025
1.00031
1.0004
1.00044
1.00048
1.00055
1.0006
1.00061
1.00065
1.00068
1.00069
1.00069
1.00071
1.00073
1.00073
1.00075
1.00078
1.00079
1.00081
1.00083
1.00084
1.00085
1.00086
1.00086
1.00087
1.00087
1.00087
1.00087
0.999152
0.999126
0.999129
0.999152
0.99914
0.999125
0.999151
0.999171
0.999165
0.999187
0.999237
0.999257
0.999267
0.999308
0.999339
0.999331
0.999335
0.999362
0.999364
0.999357
0.999389
0.999434
0.999459
0.999502
0.999581
0.999648
0.999697
0.999769
0.999849
0.999894
0.999924
0.999968
0.999992
0.99998
0.999975
0.999993
0.999997
0.999998
1.00004
1.0001
1.00014
1.0002
1.00028
1.00035
1.00039
1.00045
1.00052
1.00055
1.00058
1.00063
1.00067
1.00066
1.00068
1.00072
1.00073
1.00072
1.00076
1.0008
1.00081
1.00083
1.00088
1.0009
1.00089
1.00092
1.00095
1.00094
1.00093
1.00096
1.00097
1.00094
0.99905
0.999049
0.999055
0.999058
0.99906
0.999065
0.999079
0.9991
0.999121
0.999145
0.999185
0.999227
0.999252
0.99928
0.999318
0.999332
0.999328
0.999344
0.999363
0.99936
0.999373
0.99942
0.999456
0.999485
0.999553
0.999631
0.999681
0.999742
0.999828
0.999883
0.999909
0.999954
0.999988
0.999978
0.999974
0.999997
1
1
1.00005
1.00011
1.00015
1.00021
1.0003
1.00036
1.0004
1.00047
1.00053
1.00055
1.00059
1.00063
1.00065
1.00066
1.0007
1.00071
1.00072
1.00075
1.00079
1.00081
1.00084
1.00089
1.00092
1.00094
1.00098
1.001
1.00101
1.00102
1.00104
1.00103
1.00104
1.00105
0.998947
0.998982
0.998979
0.998954
0.998979
0.999013
0.999004
0.999015
0.999076
0.999115
0.999127
0.999181
0.99925
0.999268
0.999278
0.999326
0.999349
0.999328
0.999337
0.999378
0.999382
0.999383
0.999439
0.999501
0.999528
0.999582
0.999678
0.999743
0.999781
0.999854
0.999927
0.999942
0.999948
0.999988
1
0.999977
0.999993
1.00005
1.00007
1.00009
1.00018
1.00026
1.00029
1.00035
1.00045
1.00049
1.00051
1.00057
1.00062
1.00062
1.00063
1.00068
1.0007
1.00069
1.00073
1.00078
1.0008
1.00082
1.0009
1.00095
1.00096
1.001
1.00106
1.00107
1.00107
1.00111
1.00113
1.00112
1.00111
1.00114
0.998888
0.998878
0.998879
0.998897
0.998903
0.99891
0.998942
0.998972
0.999
0.999052
0.999109
0.999149
0.999199
0.999256
0.999284
0.999301
0.999331
0.999346
0.999339
0.999354
0.999382
0.999393
0.999417
0.999474
0.999526
0.999569
0.999642
0.999721
0.999775
0.999832
0.999897
0.999933
0.999949
0.999976
0.999992
0.999991
1.00001
1.00005
1.00007
1.00012
1.00019
1.00025
1.00031
1.00039
1.00045
1.00049
1.00054
1.00058
1.0006
1.00062
1.00066
1.00068
1.00068
1.00072
1.00076
1.00077
1.00081
1.00088
1.00093
1.00096
1.00103
1.00109
1.0011
1.00114
1.00119
1.00119
1.00118
1.00122
1.00122
1.0012
0.99881
0.998777
0.998792
0.998832
0.998824
0.998818
0.998873
0.998924
0.998935
0.998984
0.999077
0.999129
0.999154
0.999224
0.999292
0.999294
0.999298
0.999348
0.999361
0.999333
0.999357
0.999412
0.999419
0.99943
0.999512
0.999583
0.999608
0.999674
0.99978
0.999827
0.999846
0.999916
0.999972
0.999958
0.999964
1.00002
1.00004
1.00003
1.00009
1.00017
1.00019
1.00024
1.00035
1.00041
1.00043
1.0005
1.00057
1.00058
1.00059
1.00065
1.00067
1.00066
1.00069
1.00074
1.00076
1.00078
1.00085
1.00092
1.00095
1.00101
1.0011
1.00114
1.00117
1.00122
1.00126
1.00127
1.00127
1.00129
1.00131
1.00129
0.998692
0.998729
0.998733
0.998711
0.998742
0.998784
0.99879
0.998823
0.998903
0.998956
0.998998
0.999083
0.999162
0.999195
0.99924
0.999301
0.999316
0.999312
0.999341
0.999362
0.999353
0.999371
0.999419
0.999448
0.999478
0.999546
0.999615
0.999666
0.99973
0.999803
0.999855
0.999893
0.999933
0.999965
0.999987
1.00001
1.00003
1.00007
1.00011
1.00015
1.00021
1.00028
1.00034
1.00039
1.00046
1.00053
1.00055
1.00058
1.00064
1.00065
1.00064
1.00068
1.00072
1.00072
1.00075
1.00083
1.00088
1.00091
1.001
1.00109
1.00112
1.00118
1.00127
1.0013
1.0013
1.00135
1.00139
1.00136
1.00135
1.0014
0.998622
0.998655
0.998648
0.998632
0.998667
0.998713
0.998724
0.998755
0.998842
0.998916
0.998955
0.999031
0.999136
0.999186
0.999206
0.999271
0.999323
0.999307
0.999307
0.999358
0.999369
0.999346
0.999391
0.999462
0.999473
0.999502
0.999604
0.999674
0.999692
0.999764
0.999861
0.999881
0.999891
0.999966
1.00001
0.999992
1.00003
1.00011
1.00012
1.00014
1.00023
1.00031
1.00033
1.00039
1.0005
1.00053
1.00054
1.00061
1.00066
1.00064
1.00066
1.00072
1.00072
1.00073
1.00079
1.00085
1.00088
1.00095
1.00105
1.00112
1.00118
1.00125
1.00132
1.00136
1.00139
1.00142
1.00144
1.00145
1.00145
1.00146
0.998587
0.998535
0.998549
0.99861
0.998599
0.998591
0.998674
0.998741
0.998755
0.998834
0.998957
0.999012
0.999054
0.99916
0.999232
0.999231
0.999264
0.999325
0.999321
0.999301
0.999345
0.999383
0.999375
0.999405
0.999482
0.999526
0.999554
0.999631
0.999714
0.999754
0.999796
0.999868
0.999921
0.999939
0.999971
1.00003
1.00006
1.00008
1.00013
1.0002
1.00024
1.00027
1.00036
1.00044
1.00046
1.00051
1.0006
1.00063
1.00062
1.00067
1.00073
1.00071
1.00071
1.00079
1.00083
1.00083
1.00091
1.00103
1.00106
1.00112
1.00125
1.00133
1.00134
1.00141
1.0015
1.00149
1.00148
1.00154
1.00156
1.00151
0.998484
0.998474
0.998494
0.998517
0.998527
0.998549
0.998603
0.998671
0.998725
0.998791
0.998895
0.998987
0.99904
0.99911
0.999199
0.999233
0.999234
0.999281
0.99932
0.999298
0.999304
0.999366
0.999387
0.999383
0.99945
0.99953
0.999548
0.999592
0.999697
0.999751
0.999765
0.999841
0.999921
0.999929
0.999958
1.00004
1.00008
1.00008
1.00015
1.00022
1.00024
1.00028
1.00039
1.00043
1.00046
1.00054
1.00061
1.00062
1.00065
1.00072
1.00072
1.00072
1.00077
1.00081
1.00082
1.00088
1.00097
1.00102
1.00109
1.0012
1.00128
1.00134
1.00143
1.00149
1.00152
1.00156
1.00159
1.00159
1.0016
1.00163
0.998375
0.998455
0.998445
0.998393
0.99846
0.998545
0.998533
0.998571
0.998713
0.998792
0.998813
0.998929
0.999063
0.999087
0.999113
0.999218
0.99926
0.999221
0.999252
0.999322
0.999307
0.99929
0.999367
0.999426
0.999418
0.999464
0.999568
0.999613
0.999627
0.999712
0.999802
0.999822
0.999851
0.999944
1
1.00001
1.00006
1.00015
1.00018
1.00018
1.00026
1.00035
1.00036
1.0004
1.00052
1.00057
1.00057
1.00064
1.00073
1.00072
1.00071
1.00079
1.00083
1.00079
1.00085
1.00096
1.00098
1.00101
1.00115
1.00126
1.00128
1.00137
1.0015
1.00155
1.00154
1.00162
1.00169
1.00165
1.00164
1.00171
0.99836
0.998345
0.998346
0.998384
0.998406
0.998437
0.998505
0.998568
0.998633
0.998736
0.99883
0.998895
0.998987
0.999081
0.999116
0.999147
0.999212
0.999233
0.999217
0.999253
0.999302
0.999296
0.999315
0.999393
0.999433
0.999447
0.999522
0.999602
0.999627
0.999677
0.99977
0.999816
0.999845
0.999926
0.999995
1.00002
1.00007
1.00015
1.00018
1.00021
1.00029
1.00034
1.00037
1.00045
1.00053
1.00055
1.00061
1.0007
1.00072
1.00073
1.00079
1.00082
1.00081
1.00086
1.00093
1.00094
1.00099
1.00111
1.00118
1.00123
1.00135
1.00146
1.00149
1.00156
1.00167
1.00168
1.00168
1.00175
1.00177
1.00172
0.998315
0.998233
0.998272
0.99837
0.998352
0.998342
0.998473
0.998576
0.998578
0.998666
0.998838
0.9989
0.998911
0.999032
0.999138
0.999112
0.999118
0.999217
0.999233
0.999179
0.999232
0.999323
0.999308
0.999307
0.999418
0.999486
0.99947
0.999531
0.999653
0.999682
0.999687
0.999793
0.999892
0.999896
0.99994
1.00007
1.00012
1.00011
1.00019
1.00029
1.0003
1.00031
1.00043
1.0005
1.00049
1.00056
1.00069
1.0007
1.0007
1.0008
1.00086
1.00081
1.00084
1.00094
1.00095
1.00094
1.00105
1.00115
1.00117
1.00125
1.0014
1.00148
1.00151
1.00161
1.00172
1.00173
1.00173
1.0018
1.00184
1.00179
0.998169
0.99824
0.998255
0.998225
0.998296
0.998387
0.998403
0.998472
0.998613
0.998685
0.998735
0.998865
0.998964
0.998978
0.999038
0.999125
0.999123
0.999112
0.999177
0.999209
0.999187
0.999231
0.99931
0.999324
0.999348
0.999434
0.999491
0.999513
0.999579
0.99966
0.999703
0.999758
0.999841
0.999906
0.999968
1.00004
1.00011
1.00016
1.00023
1.00028
1.00031
1.00038
1.00045
1.00047
1.00054
1.00064
1.00067
1.0007
1.0008
1.00085
1.00082
1.00088
1.00095
1.00093
1.00093
1.00105
1.0011
1.00109
1.00122
1.00136
1.00138
1.00144
1.00162
1.00168
1.00166
1.00178
1.00188
1.00182
1.00182
1.00193
0.998112
0.998204
0.99819
0.998153
0.998253
0.998366
0.998371
0.998422
0.998591
0.998694
0.998705
0.998808
0.998961
0.998981
0.998966
0.999066
0.999134
0.999075
0.99908
0.999188
0.9992
0.999156
0.999241
0.999347
0.999329
0.999343
0.999473
0.999533
0.99951
0.999594
0.999727
0.999745
0.999768
0.999911
1.00001
1.00001
1.00009
1.00023
1.00026
1.00025
1.00037
1.00046
1.00043
1.00048
1.00062
1.00066
1.00065
1.00077
1.00086
1.00083
1.00086
1.00097
1.00097
1.00093
1.00101
1.00109
1.00109
1.00114
1.00127
1.00135
1.00139
1.0015
1.00163
1.00169
1.00174
1.00182
1.00189
1.0019
1.0019
1.00194
0.998143
0.998037
0.998081
0.998226
0.998215
0.998211
0.998385
0.998499
0.998491
0.998609
0.99879
0.998812
0.998826
0.998969
0.999032
0.998974
0.999018
0.999114
0.999082
0.999055
0.999153
0.999209
0.999181
0.999235
0.999341
0.999361
0.999372
0.999463
0.999543
0.999567
0.999626
0.99973
0.999811
0.99987
0.999956
1.00006
1.00015
1.0002
1.00026
1.00036
1.00041
1.00042
1.00049
1.00059
1.00061
1.00064
1.00076
1.00083
1.00081
1.00088
1.00099
1.00096
1.00093
1.00105
1.0011
1.00103
1.00111
1.00127
1.00127
1.00128
1.00148
1.0016
1.00156
1.00168
1.00187
1.00186
1.00183
1.00199
1.00205
1.00193
0.99803
0.997995
0.99806
0.998146
0.998168
0.998209
0.998338
0.998461
0.998507
0.998583
0.998736
0.998824
0.998823
0.998892
0.999002
0.998991
0.998951
0.999032
0.999091
0.999035
0.999056
0.999177
0.999195
0.999164
0.999263
0.999365
0.999341
0.999372
0.999511
0.999564
0.999561
0.999682
0.999825
0.999853
0.999922
1.00009
1.00018
1.00019
1.0003
1.00042
1.00042
1.00045
1.00058
1.00063
1.00061
1.00071
1.00082
1.00081
1.00085
1.00097
1.00099
1.00096
1.00103
1.0011
1.00106
1.00109
1.0012
1.00123
1.00127
1.00139
1.00148
1.00154
1.00165
1.00175
1.00181
1.0019
1.00197
1.00198
1.00203
1.00207
0.997873
0.998063
0.998059
0.99796
0.998129
0.998315
0.998266
0.99832
0.998575
0.998652
0.998602
0.998758
0.998927
0.998863
0.998846
0.999002
0.99902
0.998913
0.99898
0.9991
0.99905
0.999026
0.999162
0.999226
0.999176
0.999235
0.999364
0.99938
0.999378
0.999495
0.999613
0.999643
0.999714
0.999873
0.999991
1.00004
1.00014
1.00029
1.00036
1.00038
1.00047
1.00059
1.00059
1.00059
1.00073
1.00081
1.00077
1.00083
1.00099
1.00098
1.00093
1.00106
1.00114
1.00103
1.00106
1.00123
1.00122
1.00116
1.00134
1.00149
1.00144
1.00152
1.00176
1.00181
1.00176
1.00193
1.0021
1.00201
1.00199
1.00217
0.997929
0.997936
0.997945
0.99802
0.998098
0.998181
0.998286
0.998371
0.998471
0.998604
0.998679
0.998715
0.998818
0.998898
0.998869
0.998883
0.998973
0.998966
0.998916
0.998992
0.999069
0.99903
0.999053
0.999172
0.999194
0.99917
0.999266
0.999361
0.999355
0.999416
0.999565
0.999635
0.999685
0.999846
0.99999
1.00005
1.00016
1.00032
1.00038
1.00042
1.00055
1.00062
1.00061
1.00069
1.0008
1.00079
1.00082
1.00094
1.00098
1.00095
1.00105
1.00111
1.00106
1.00109
1.0012
1.00118
1.00118
1.00132
1.00138
1.00138
1.00152
1.00166
1.00167
1.00177
1.00195
1.00196
1.00197
1.00212
1.00216
1.00207
0.997948
0.997754
0.997864
0.998112
0.998058
0.99802
0.998298
0.998464
0.998375
0.998487
0.998758
0.998755
0.998669
0.998845
0.99897
0.998832
0.998819
0.998995
0.998982
0.998864
0.998972
0.999107
0.999032
0.999012
0.999172
0.999224
0.999154
0.999233
0.999393
0.999412
0.999425
0.999597
0.999758
0.999796
0.999899
1.00012
1.00024
1.00026
1.00039
1.00056
1.00058
1.00057
1.00072
1.00082
1.00076
1.00079
1.00097
1.00098
1.0009
1.00103
1.00116
1.00105
1.00104
1.00123
1.00123
1.00111
1.00125
1.00142
1.00135
1.00137
1.00162
1.00171
1.00165
1.0018
1.00202
1.002
1.00197
1.00215
1.00226
1.00212
0.997727
0.997867
0.997917
0.997878
0.998016
0.998176
0.998191
0.998292
0.998489
0.998539
0.998564
0.998728
0.998803
0.998748
0.998815
0.998919
0.998858
0.998827
0.998942
0.998963
0.998897
0.99897
0.99907
0.999035
0.999039
0.999152
0.99919
0.999181
0.999277
0.999391
0.999438
0.999537
0.999695
0.999807
0.999924
1.00009
1.00022
1.00031
1.00045
1.00056
1.00059
1.00069
1.00078
1.00078
1.00081
1.00093
1.00095
1.00092
1.00104
1.00112
1.00105
1.00108
1.00123
1.00118
1.00112
1.00129
1.00135
1.00126
1.00139
1.0016
1.00156
1.00159
1.00186
1.00193
1.00184
1.00204
1.00223
1.00209
1.00209
1.00233
0.997668
0.997913